! TOUCHSTONE file generated by CST MICROWAVE STUDIO
! Date and time: Thu Jan 23 14:44:07 2025
! Project name: YAGI PROTO.cst
! Parameters = {AntenaLength=429.47; BoomDiameter=20; BoomLength=733; DipolePost=166; DirLength1=290.02; DirLength2=285.87; DirLength3=281.46; DirLength4=277.33; DirLength5=273.74; DirPost1=218; DirPost2=343; DirPost3=469; DirPost4=596; DirPost5=724; Gap=9; Konstanta=100; RLength=336.14; RPost=0; RodDiameter=10}
! Header version: 2024
! Port assignment regex: !\s*Touchstone port\s*([0-9]+)\s*=\s*(CST MWS port|CST DES external port|CST DES block port)\s*(.+)\s* \(\"(.*)\"\)(\s*mode\s*([0-9]+))?.*
! Touchstone port assignment:
! Touchstone port 1 = CST MWS port 1 ("")
# MHz S MA R 50
400                    0.5826352       -0.575482
400.05                 0.5826267       -0.636701
400.1                  0.5826177      -0.6980671
400.15                 0.5826081      -0.7595814
400.2                   0.582598      -0.8212448
400.25                 0.5825871      -0.8830584
400.3                  0.5825757      -0.9450226
400.35                 0.5825635       -1.007139
400.4                  0.5825505       -1.069407
400.45                 0.5825369       -1.131829
400.5                  0.5825224       -1.194405
400.55                 0.5825072       -1.257135
400.6                  0.5824911        -1.32002
400.65                 0.5824741        -1.38306
400.7                  0.5824562       -1.446256
400.75                 0.5824373       -1.509608
400.8                  0.5824175       -1.573117
400.85                 0.5823967       -1.636782
400.9                  0.5823749       -1.700605
400.95                  0.582352       -1.764584
401                     0.582328       -1.828721
401.05                  0.582303       -1.893015
401.1                  0.5822768       -1.957467
401.15                 0.5822495       -2.022075
401.2                  0.5822209       -2.086841
401.25                 0.5821911       -2.151765
401.3                  0.5821601       -2.216845
401.35                 0.5821278       -2.282082
401.4                  0.5820942       -2.347476
401.45                 0.5820593       -2.413025
401.5                  0.5820229       -2.478732
401.55                 0.5819853       -2.544593
401.6                  0.5819462        -2.61061
401.65                 0.5819057       -2.676782
401.7                  0.5818638       -2.743109
401.75                 0.5818203       -2.809589
401.8                  0.5817754       -2.876223
401.85                 0.5817289        -2.94301
401.9                  0.5816808       -3.009949
401.95                 0.5816312        -3.07704
402                      0.58158       -3.144281
402.05                 0.5815272       -3.211673
402.1                  0.5814727       -3.279216
402.15                 0.5814166       -3.346906
402.2                  0.5813587       -3.414746
402.25                 0.5812992       -3.482732
402.3                  0.5812378       -3.550865
402.35                 0.5811748       -3.619144
402.4                  0.5811101       -3.687568
402.45                 0.5810434       -3.756136
402.5                   0.580975       -3.824847
402.55                 0.5809047       -3.893701
402.6                  0.5808326       -3.962695
402.65                 0.5807586       -4.031831
402.7                  0.5806828       -4.101106
402.75                 0.5806049       -4.170519
402.8                  0.5805252        -4.24007
402.85                 0.5804435       -4.309756
402.9                  0.5803598       -4.379579
402.95                 0.5802742       -4.449535
403                    0.5801865       -4.519626
403.05                 0.5800968       -4.589848
403.1                  0.5800053       -4.660201
403.15                 0.5799115       -4.730684
403.2                  0.5798157       -4.801297
403.25                 0.5797178       -4.872036
403.3                  0.5796178       -4.942904
403.35                 0.5795157       -5.013895
403.4                  0.5794114       -5.085012
403.45                 0.5793051       -5.156252
403.5                  0.5791966       -5.227614
403.55                 0.5790859       -5.299096
403.6                   0.578973       -5.370699
403.65                 0.5788581       -5.442419
403.7                  0.5787408       -5.514248
403.75                 0.5786213       -5.586211
403.8                  0.5784997        -5.65831
403.85                 0.5783757       -5.730464
403.9                  0.5782495       -5.802755
403.95                  0.578121       -5.875165
404                    0.5779903       -5.947682
404.05                 0.5778574       -6.020308
404.1                  0.5777221       -6.093041
404.15                 0.5775845       -6.165881
404.2                  0.5774446       -6.238826
404.25                 0.5773023       -6.311876
404.3                  0.5771577       -6.385029
404.35                 0.5770108       -6.458283
404.4                  0.5768616       -6.531638
404.45                   0.57671       -6.605093
404.5                   0.576556       -6.678645
404.55                 0.5763996       -6.752294
404.6                   0.576241        -6.82604
404.65                 0.5760799       -6.899879
404.7                  0.5759164       -6.973813
404.75                 0.5757504       -7.047839
404.8                  0.5755822       -7.121956
404.85                 0.5754114       -7.196163
404.9                  0.5752383       -7.270459
404.95                 0.5750628       -7.344842
405                    0.5748848       -7.419314
405.05                 0.5747044       -7.493868
405.1                  0.5745215        -7.56851
405.15                 0.5743362       -7.643233
405.2                  0.5741485       -7.718039
405.25                 0.5739584       -7.792926
405.3                  0.5737657       -7.867894
405.35                 0.5735705        -7.94294
405.4                   0.573373       -8.018064
405.45                 0.5731729       -8.093266
405.5                  0.5729704       -8.168543
405.55                 0.5727655       -8.243895
405.6                   0.572558       -8.319321
405.65                  0.572348        -8.39482
405.7                  0.5721356       -8.470389
405.75                 0.5719207       -8.546033
405.8                  0.5717034       -8.621744
405.85                 0.5714835       -8.697524
405.9                  0.5712611       -8.773373
405.95                 0.5710362        -8.84929
406                    0.5708088       -8.925272
406.05                  0.570579       -9.001319
406.1                  0.5703467        -9.07743
406.15                 0.5701118       -9.153608
406.2                  0.5698745       -9.229846
406.25                 0.5696347       -9.306145
406.3                  0.5693924       -9.382507
406.35                 0.5691475        -9.45893
406.4                  0.5689002        -9.53541
406.45                 0.5686504       -9.611952
406.5                   0.568398        -9.68855
406.55                 0.5681432       -9.765206
406.6                  0.5678859       -9.841917
406.65                 0.5676261       -9.918684
406.7                  0.5673636       -9.995507
406.75                 0.5670988       -10.07238
406.8                  0.5668314       -10.14931
406.85                 0.5665616        -10.2263
406.9                  0.5662893       -10.30333
406.95                 0.5660144       -10.38042
407                    0.5657371       -10.45756
407.05                 0.5654573       -10.53475
407.1                  0.5651749       -10.61199
407.15                   0.56489       -10.68928
407.2                  0.5646028       -10.76661
407.25                 0.5643129         -10.844
407.3                  0.5640206       -10.92143
407.35                 0.5637258       -10.99891
407.4                  0.5634285       -11.07644
407.45                 0.5631287       -11.15401
407.5                  0.5628264       -11.23163
407.55                 0.5625216       -11.30929
407.6                  0.5622144         -11.387
407.65                 0.5619046       -11.46475
407.7                  0.5615924       -11.54255
407.75                 0.5612777       -11.62039
407.8                  0.5609604       -11.69827
407.85                 0.5606407        -11.7762
407.9                  0.5603186       -11.85417
407.95                  0.559994       -11.93218
408                    0.5596668       -12.01023
408.05                 0.5593372       -12.08832
408.1                  0.5590051       -12.16646
408.15                 0.5586706       -12.24463
408.2                  0.5583335       -12.32285
408.25                 0.5579941       -12.40111
408.3                  0.5576521       -12.47941
408.35                 0.5573076       -12.55774
408.4                  0.5569607       -12.63612
408.45                 0.5566114       -12.71454
408.5                  0.5562596       -12.79299
408.55                 0.5559053       -12.87149
408.6                  0.5555485       -12.95002
408.65                 0.5551892       -13.02859
408.7                  0.5548275       -13.10721
408.75                 0.5544633       -13.18586
408.8                  0.5540967       -13.26455
408.85                 0.5537277       -13.34327
408.9                  0.5533561       -13.42204
408.95                 0.5529821       -13.50085
409                    0.5526056       -13.57969
409.05                 0.5522267       -13.65857
409.1                  0.5518453       -13.73749
409.15                 0.5514615       -13.81645
409.2                  0.5510752       -13.89544
409.25                 0.5506864       -13.97448
409.3                  0.5502952       -14.05355
409.35                 0.5499015       -14.13266
409.4                  0.5495054       -14.21181
409.45                 0.5491068         -14.291
409.5                  0.5487058       -14.37022
409.55                 0.5483022       -14.44949
409.6                  0.5478962       -14.52879
409.65                 0.5474879       -14.60813
409.7                  0.5470769       -14.68751
409.75                 0.5466635       -14.76693
409.8                  0.5462477       -14.84639
409.85                 0.5458295       -14.92589
409.9                  0.5454087       -15.00542
409.95                 0.5449855         -15.085
410                    0.5445599       -15.16462
410.05                 0.5441318       -15.24427
410.1                  0.5437011       -15.32397
410.15                 0.5432681        -15.4037
410.2                  0.5428325       -15.48348
410.25                 0.5423944        -15.5633
410.3                   0.541954       -15.64315
410.35                  0.541511       -15.72305
410.4                  0.5410655       -15.80299
410.45                 0.5406175       -15.88297
410.5                  0.5401671       -15.96299
410.55                 0.5397142       -16.04305
410.6                  0.5392588       -16.12316
410.65                 0.5388009       -16.20331
410.7                  0.5383405        -16.2835
410.75                 0.5378776       -16.36373
410.8                  0.5374122       -16.44401
410.85                 0.5369443       -16.52433
410.9                  0.5364739       -16.60469
410.95                  0.536001        -16.6851
411                    0.5355256       -16.76555
411.05                 0.5350476       -16.84604
411.1                  0.5345672       -16.92658
411.15                 0.5340842       -17.00716
411.2                  0.5335986       -17.08779
411.25                 0.5331105       -17.16847
411.3                    0.53262       -17.24919
411.35                 0.5321268       -17.32996
411.4                  0.5316311       -17.41077
411.45                 0.5311329       -17.49163
411.5                   0.530632       -17.57254
411.55                 0.5301286       -17.65349
411.6                  0.5296227        -17.7345
411.65                 0.5291142       -17.81555
411.7                  0.5286031       -17.89664
411.75                 0.5280895       -17.97779
411.8                  0.5275732       -18.05898
411.85                 0.5270544       -18.14023
411.9                  0.5265329       -18.22152
411.95                 0.5260089       -18.30286
412                    0.5254822       -18.38425
412.05                 0.5249529        -18.4657
412.1                  0.5244209       -18.54719
412.15                 0.5238863       -18.62873
412.2                  0.5233492       -18.71033
412.25                 0.5228094       -18.79197
412.3                  0.5222669       -18.87367
412.35                 0.5217217       -18.95542
412.4                   0.521174       -19.03722
412.45                 0.5206234       -19.11907
412.5                  0.5200702       -19.20097
412.55                 0.5195144       -19.28293
412.6                  0.5189558       -19.36494
412.65                 0.5183945       -19.44701
412.7                  0.5178306       -19.52912
412.75                 0.5172639       -19.61129
412.8                  0.5166945       -19.69352
412.85                 0.5161223        -19.7758
412.9                  0.5155475       -19.85813
412.95                 0.5149698       -19.94052
413                    0.5143894       -20.02296
413.05                 0.5138062       -20.10546
413.1                  0.5132203       -20.18801
413.15                 0.5126315       -20.27062
413.2                    0.51204       -20.35328
413.25                 0.5114456       -20.43599
413.3                  0.5108484       -20.51877
413.35                 0.5102484        -20.6016
413.4                  0.5096456       -20.68448
413.45                 0.5090399       -20.76742
413.5                  0.5084314       -20.85042
413.55                   0.50782       -20.93347
413.6                  0.5072057       -21.01658
413.65                 0.5065885       -21.09974
413.7                  0.5059685       -21.18297
413.75                 0.5053456       -21.26624
413.8                  0.5047197       -21.34957
413.85                  0.504091       -21.43296
413.9                  0.5034592       -21.51641
413.95                 0.5028246       -21.59991
414                    0.5021869       -21.68347
414.05                 0.5015464       -21.76708
414.1                  0.5009028       -21.85075
414.15                 0.5002562       -21.93448
414.2                  0.4996067       -22.01826
414.25                 0.4989542        -22.1021
414.3                  0.4982986       -22.18599
414.35                   0.49764       -22.26994
414.4                  0.4969783       -22.35395
414.45                 0.4963136         -22.438
414.5                  0.4956458       -22.52212
414.55                  0.494975       -22.60629
414.6                   0.494301       -22.69052
414.65                  0.493624       -22.77479
414.7                  0.4929439       -22.85912
414.75                 0.4922606       -22.94351
414.8                  0.4915741       -23.02795
414.85                 0.4908846       -23.11244
414.9                  0.4901919       -23.19699
414.95                  0.489496       -23.28159
415                    0.4887969       -23.36624
415.05                 0.4880946       -23.45094
415.1                  0.4873892       -23.53569
415.15                 0.4866805       -23.62049
415.2                  0.4859685       -23.70535
415.25                 0.4852533       -23.79025
415.3                  0.4845349       -23.87521
415.35                 0.4838132       -23.96021
415.4                  0.4830882       -24.04526
415.45                   0.48236       -24.13036
415.5                  0.4816284       -24.21551
415.55                 0.4808934        -24.3007
415.6                  0.4801552       -24.38594
415.65                 0.4794137       -24.47122
415.7                  0.4786688       -24.55655
415.75                 0.4779205       -24.64192
415.8                  0.4771688       -24.72734
415.85                 0.4764137        -24.8128
415.9                  0.4756553       -24.89829
415.95                 0.4748934       -24.98383
416                    0.4741281       -25.06942
416.05                 0.4733593       -25.15503
416.1                   0.472587        -25.2407
416.15                 0.4718114       -25.32639
416.2                  0.4710322       -25.41212
416.25                 0.4702495       -25.49789
416.3                  0.4694634       -25.58368
416.35                 0.4686737       -25.66952
416.4                  0.4678805       -25.75538
416.45                 0.4670838       -25.84128
416.5                  0.4662834        -25.9272
416.55                 0.4654795       -26.01316
416.6                  0.4646721       -26.09914
416.65                  0.463861       -26.18515
416.7                  0.4630464       -26.27119
416.75                 0.4622281       -26.35725
416.8                  0.4614061       -26.44333
416.85                 0.4605807       -26.52942
416.9                  0.4597514       -26.61555
416.95                 0.4589186       -26.70168
417                    0.4580821       -26.78785
417.05                 0.4572418       -26.87402
417.1                  0.4563979       -26.96019
417.15                 0.4555503       -27.04639
417.2                  0.4546989       -27.13259
417.25                 0.4538437       -27.21881
417.3                  0.4529849       -27.30506
417.35                 0.4521222       -27.39126
417.4                  0.4512558       -27.47751
417.45                 0.4503856       -27.56376
417.5                  0.4495117       -27.64996
417.55                 0.4486339       -27.73621
417.6                  0.4477523       -27.82244
417.65                 0.4468668       -27.90866
417.7                  0.4459775       -27.99488
417.75                 0.4450844       -28.08108
417.8                  0.4441874       -28.16731
417.85                 0.4432865       -28.25348
417.9                  0.4423817       -28.33962
417.95                 0.4414731       -28.42579
418                    0.4405604       -28.51191
418.05                  0.439644       -28.59801
418.1                  0.4387235       -28.68409
418.15                 0.4377992       -28.77013
418.2                  0.4368709       -28.85615
418.25                 0.4359386       -28.94214
418.3                  0.4350023       -29.02809
418.35                 0.4340621       -29.11401
418.4                  0.4331179       -29.19988
418.45                 0.4321697       -29.28571
418.5                  0.4312175       -29.37149
418.55                 0.4302612       -29.45723
418.6                  0.4293009       -29.54291
418.65                 0.4283366       -29.62855
418.7                  0.4273683       -29.71412
418.75                 0.4263958       -29.79963
418.8                  0.4254193       -29.88508
418.85                 0.4244388       -29.97045
418.9                  0.4234542       -30.05577
418.95                 0.4224654         -30.141
419                    0.4214726       -30.22616
419.05                 0.4204757       -30.31124
419.1                  0.4194747       -30.39623
419.15                 0.4184695       -30.48115
419.2                  0.4174602       -30.56597
419.25                 0.4164467       -30.65069
419.3                  0.4154292       -30.73532
419.35                 0.4144074       -30.81984
419.4                  0.4133815       -30.90426
419.45                 0.4123514       -30.98857
419.5                  0.4113172       -31.07276
419.55                 0.4102788       -31.15684
419.6                  0.4092362        -31.2408
419.65                 0.4081894       -31.32462
419.7                  0.4071384       -31.40833
419.75                 0.4060832        -31.4919
419.8                  0.4050238       -31.57532
419.85                 0.4039602       -31.65861
419.9                  0.4028923       -31.74174
419.95                 0.4018203       -31.82472
420                     0.400744       -31.90754
420.05                 0.3996635        -31.9902
420.1                  0.3985787       -32.07269
420.15                 0.3974897       -32.15501
420.2                  0.3963965       -32.23715
420.25                 0.3952989       -32.31911
420.3                  0.3941972       -32.40088
420.35                 0.3930912       -32.48246
420.4                  0.3919809       -32.56384
420.45                 0.3908664       -32.64501
420.5                  0.3897476       -32.72597
420.55                 0.3886245       -32.80672
420.6                  0.3874972       -32.88724
420.65                 0.3863656       -32.96754
420.7                  0.3852297        -33.0476
420.75                 0.3840896       -33.12742
420.8                  0.3829452         -33.207
420.85                 0.3817965       -33.28632
420.9                  0.3806435       -33.36538
420.95                 0.3794863       -33.44417
421                    0.3783247        -33.5227
421.05                 0.3771589       -33.60093
421.1                  0.3759888       -33.67889
421.15                 0.3748145       -33.75655
421.2                  0.3736359        -33.8339
421.25                  0.372453       -33.91095
421.3                  0.3712658       -33.98768
421.35                 0.3700744       -34.06409
421.4                  0.3688787       -34.14016
421.45                 0.3676788        -34.2159
421.5                  0.3664746       -34.29128
421.55                 0.3652662        -34.3663
421.6                  0.3640535       -34.44097
421.65                 0.3628365       -34.51525
421.7                  0.3616153       -34.58916
421.75                 0.3603899       -34.66268
421.8                  0.3591602       -34.73578
421.85                 0.3579263       -34.80849
421.9                  0.3566882       -34.88077
421.95                 0.3554458       -34.95263
422                    0.3541993       -35.02405
422.05                 0.3529485       -35.09502
422.1                  0.3516936       -35.16553
422.15                 0.3504345       -35.23556
422.2                  0.3491712       -35.30512
422.25                 0.3479037        -35.3742
422.3                  0.3466321       -35.44276
422.35                 0.3453562       -35.51083
422.4                  0.3440763       -35.57835
422.45                 0.3427922       -35.64536
422.5                   0.341504       -35.71181
422.55                 0.3402117        -35.7777
422.6                  0.3389153       -35.84302
422.65                 0.3376148       -35.90776
422.7                  0.3363102        -35.9719
422.75                 0.3350015       -36.03543
422.8                  0.3336889       -36.09834
422.85                 0.3323721       -36.16061
422.9                  0.3310513       -36.22223
422.95                 0.3297265        -36.2832
423                    0.3283978       -36.34348
423.05                 0.3270651       -36.40306
423.1                  0.3257283       -36.46195
423.15                 0.3243877        -36.5201
423.2                  0.3230431       -36.57752
423.25                 0.3216946       -36.63419
423.3                  0.3203421       -36.69009
423.35                 0.3189859       -36.74519
423.4                  0.3176257       -36.79951
423.45                 0.3162617       -36.85299
423.5                   0.314894       -36.90564
423.55                 0.3135224       -36.95744
423.6                   0.312147       -37.00835
423.65                 0.3107679       -37.05837
423.7                   0.309385        -37.1075
423.75                 0.3079985       -37.15568
423.8                  0.3066082       -37.20292
423.85                 0.3052143       -37.24918
423.9                  0.3038168       -37.29445
423.95                 0.3024156       -37.33871
424                    0.3010109       -37.38194
424.05                 0.2996026       -37.42412
424.1                  0.2981908       -37.46521
424.15                 0.2967755       -37.50521
424.2                  0.2953567       -37.54408
424.25                 0.2939346        -37.5818
424.3                  0.2925089       -37.61835
424.35                   0.29108       -37.65371
424.4                  0.2896476       -37.68784
424.45                  0.288212       -37.72072
424.5                  0.2867731       -37.75233
424.55                  0.285331       -37.78264
424.6                  0.2838856       -37.81161
424.65                 0.2824371       -37.83922
424.7                  0.2809855       -37.86545
424.75                 0.2795308       -37.89026
424.8                   0.278073       -37.91363
424.85                 0.2766123       -37.93551
424.9                  0.2751485       -37.95588
424.95                 0.2736819       -37.97471
425                    0.2722123       -37.99196
425.05                   0.27074        -38.0076
425.1                  0.2692648       -38.02161
425.15                  0.267787       -38.03392
425.2                  0.2663064       -38.04451
425.25                 0.2648232       -38.05335
425.3                  0.2633374        -38.0604
425.35                 0.2618491       -38.06562
425.4                  0.2603583       -38.06896
425.45                  0.258865       -38.07039
425.5                  0.2573695       -38.06986
425.55                 0.2558716       -38.06733
425.6                  0.2543714       -38.06277
425.65                 0.2528691       -38.05611
425.7                  0.2513646       -38.04733
425.75                 0.2498581       -38.03635
425.8                  0.2483495       -38.02315
425.85                 0.2468391       -38.00767
425.9                  0.2453268       -37.98986
425.95                 0.2438127       -37.96966
426                    0.2422968       -37.94704
426.05                 0.2407794       -37.92192
426.1                  0.2392603       -37.89425
426.15                 0.2377398       -37.86398
426.2                  0.2362179       -37.83104
426.25                 0.2346946       -37.79538
426.3                  0.2331701       -37.75694
426.35                 0.2316445       -37.71565
426.4                  0.2301177       -37.67144
426.45                 0.2285901       -37.62425
426.5                  0.2270615       -37.57401
426.55                 0.2255321       -37.52065
426.6                  0.2240021       -37.46411
426.65                 0.2224715       -37.40429
426.7                  0.2209404       -37.34114
426.75                  0.219409       -37.27456
426.8                  0.2178772        -37.2045
426.85                 0.2163454       -37.13085
426.9                  0.2148135       -37.05354
426.95                 0.2132817       -36.97247
427                    0.2117501       -36.88758
427.05                 0.2102188       -36.79875
427.1                   0.208688       -36.70591
427.15                 0.2071579       -36.60896
427.2                  0.2056284       -36.50778
427.25                 0.2040999       -36.40231
427.3                  0.2025723       -36.29242
427.35                  0.201046       -36.17802
427.4                  0.1995209       -36.05898
427.45                 0.1979974       -35.93521
427.5                  0.1964755        -35.8066
427.55                 0.1949554       -35.67302
427.6                  0.1934373       -35.53437
427.65                 0.1919214        -35.3905
427.7                  0.1904078       -35.24131
427.75                 0.1888968       -35.08667
427.8                  0.1873885       -34.92645
427.85                 0.1858831        -34.7605
427.9                  0.1843809        -34.5887
427.95                 0.1828819       -34.41091
428                    0.1813866       -34.22698
428.05                  0.179895       -34.03676
428.1                  0.1784075       -33.84011
428.15                 0.1769242       -33.63688
428.2                  0.1754454       -33.42691
428.25                 0.1739714       -33.21004
428.3                  0.1725023        -32.9861
428.35                 0.1710386       -32.75493
428.4                  0.1695804       -32.51637
428.45                  0.168128       -32.27023
428.5                  0.1666818       -32.01634
428.55                  0.165242       -31.75454
428.6                  0.1638089       -31.48463
428.65                 0.1623829       -31.20642
428.7                  0.1609643       -30.91973
428.75                 0.1595534       -30.62438
428.8                  0.1581506       -30.32016
428.85                 0.1567563       -30.00689
428.9                  0.1553707       -29.68435
428.95                 0.1539944       -29.35237
429                    0.1526276       -29.01073
429.05                 0.1512709       -28.65924
429.1                  0.1499245       -28.29768
429.15                  0.148589       -27.92585
429.2                  0.1472648       -27.54356
429.25                 0.1459523       -27.15059
429.3                   0.144652       -26.74675
429.35                 0.1433643       -26.33182
429.4                  0.1420898       -25.90562
429.45                  0.140829       -25.46793
429.5                  0.1395824       -25.01857
429.55                 0.1383505       -24.55734
429.6                  0.1371339       -24.08407
429.65                 0.1359331       -23.59855
429.7                  0.1347486       -23.10062
429.75                 0.1335811       -22.59012
429.8                  0.1324312       -22.06689